
#(C) 2024 by FIZ Karlsruhe - Leibniz Institute for Information Infrastructure.  All rights reserved.
data_58590-ICSD
_database_code_ICSD 58590
_audit_creation_date 2004-04-01
_chemical_name_common 'Gold tin (0.85/0.15)'
_chemical_formula_structural 'Au0.85 Sn0.15'
_chemical_formula_sum 'Au0.85 Sn0.15'
_chemical_name_structure_type hcp#Mg
_exptl_crystal_density_diffrn 17.32
_citation_title

;
The lattice spacing relationships in close-packed alpha and zeta phases based
on gold
;
loop_
_citation_id
_citation_journal_full
_citation_year
_citation_journal_volume
_citation_page_first
_citation_page_last
_citation_journal_id_ASTM
primary 'Acta Metallurgica' 1960 8 677 683 AMETAR
loop_
_citation_author_citation_id
_citation_author_name
primary 'Massalski, T.B.'
primary 'King, H.W.'
_cell_length_a 2.9305
_cell_length_b 2.9305
_cell_length_c 4.7761
_cell_angle_alpha 90.
_cell_angle_beta 90.
_cell_angle_gamma 120.
_cell_volume 35.52
_cell_formula_units_Z 2
_space_group_name_H-M_alt 'P 63/m m c'
_space_group_IT_number 194
loop_
_space_group_symop_id
_space_group_symop_operation_xyz
1 'x, x-y, -z+1/2'
2 '-x+y, y, -z+1/2'
3 '-y, -x, -z+1/2'
4 '-x+y, -x, -z+1/2'
5 '-y, x-y, -z+1/2'
6 'x, y, -z+1/2'
7 '-x, -x+y, z+1/2'
8 'x-y, -y, z+1/2'
9 'y, x, z+1/2'
10 'x-y, x, z+1/2'
11 'y, -x+y, z+1/2'
12 '-x, -y, z+1/2'
13 '-x, -x+y, -z'
14 'x-y, -y, -z'
15 'y, x, -z'
16 'x-y, x, -z'
17 'y, -x+y, -z'
18 '-x, -y, -z'
19 'x, x-y, z'
20 '-x+y, y, z'
21 '-y, -x, z'
22 '-x+y, -x, z'
23 '-y, x-y, z'
24 'x, y, z'
loop_
_atom_type_symbol
_atom_type_oxidation_number
Au0+ 0
Sn0+ 0
loop_
_atom_site_label
_atom_site_type_symbol
_atom_site_symmetry_multiplicity
_atom_site_Wyckoff_symbol
_atom_site_fract_x
_atom_site_fract_y
_atom_site_fract_z
_atom_site_B_iso_or_equiv
_atom_site_occupancy
Au1 Au0+ 2 c 0.3333 0.6667 0.25 . 0.85
Sn1 Sn0+ 2 c 0.3333 0.6667 0.25 . 0.15
#End of TTdata_58590-ICSD